+ 0.502761 /NodeList/6/DeviceList/0/$ns3::CsmaNetDevice/TxQueue/Enqueue ns3::EthernetHeader ( length/type=0x800, source=00:00:00:00:00:06, destination=01:00:5e:00:00:09) ns3::Ipv4Header (tos 0x0 DSCP Default ECN Not-ECT ttl 1 id 0 protocol 17 offset (bytes) 0 flags [none] length: 52 10.0.2.2 > 224.0.0.9) ns3::UdpHeader (length: 32 520 > 520) ns3::RipHeader (command 1 | prefix 0.0.0.0/0 Metric 16 Tag 0 Next Hop 0.0.0.0) ns3::EthernetTrailer (fcs=0)
- 0.502761 /NodeList/6/DeviceList/0/$ns3::CsmaNetDevice/TxQueue/Dequeue ns3::EthernetHeader ( length/type=0x800, source=00:00:00:00:00:06, destination=01:00:5e:00:00:09) ns3::Ipv4Header (tos 0x0 DSCP Default ECN Not-ECT ttl 1 id 0 protocol 17 offset (bytes) 0 flags [none] length: 52 10.0.2.2 > 224.0.0.9) ns3::UdpHeader (length: 32 520 > 520) ns3::RipHeader (command 1 | prefix 0.0.0.0/0 Metric 16 Tag 0 Next Hop 0.0.0.0) ns3::EthernetTrailer (fcs=0)
+ 0.502761 /NodeList/6/DeviceList/1/$ns3::CsmaNetDevice/TxQueue/Enqueue ns3::EthernetHeader ( length/type=0x800, source=00:00:00:00:00:07, destination=01:00:5e:00:00:09) ns3::Ipv4Header (tos 0x0 DSCP Default ECN Not-ECT ttl 1 id 0 protocol 17 offset (bytes) 0 flags [none] length: 52 10.0.3.1 > 224.0.0.9) ns3::UdpHeader (length: 32 520 > 520) ns3::RipHeader (command 1 | prefix 0.0.0.0/0 Metric 16 Tag 0 Next Hop 0.0.0.0) ns3::EthernetTrailer (fcs=0)
- 0.502761 /NodeList/6/DeviceList/1/$ns3::CsmaNetDevice/TxQueue/Dequeue ns3::EthernetHeader ( length/type=0x800, source=00:00:00:00:00:07, destination=01:00:5e:00:00:09) ns3::Ipv4Header (tos 0x0 DSCP Default ECN Not-ECT ttl 1 id 0 protocol 17 offset (bytes) 0 flags [none] length: 52 10.0.3.1 > 224.0.0.9) ns3::UdpHeader (length: 32 520 > 520) ns3::RipHeader (command 1 | prefix 0.0.0.0/0 Metric 16 Tag 0 Next Hop 0.0.0.0) ns3::EthernetTrailer (fcs=0)
r 0.504873 /NodeList/2/DeviceList/1/$ns3::CsmaNetDevice/MacRx ns3::EthernetHeader ( length/type=0x800, source=00:00:00:00:00:06, destination=01:00:5e:00:00:09) ns3::Ipv4Header (tos 0x0 DSCP Default ECN Not-ECT ttl 1 id 0 protocol 17 offset (bytes) 0 flags [none] length: 52 10.0.2.2 > 224.0.0.9) ns3::UdpHeader (length: 32 520 > 520) ns3::RipHeader (command 1 | prefix 0.0.0.0/0 Metric 16 Tag 0 Next Hop 0.0.0.0) ns3::EthernetTrailer (fcs=0)
r 0.504873 /NodeList/4/DeviceList/0/$ns3::CsmaNetDevice/MacRx ns3::EthernetHeader ( length/type=0x800, source=00:00:00:00:00:07, destination=01:00:5e:00:00:09) ns3::Ipv4Header (tos 0x0 DSCP Default ECN Not-ECT ttl 1 id 0 protocol 17 offset (bytes) 0 flags [none] length: 52 10.0.3.1 > 224.0.0.9) ns3::UdpHeader (length: 32 520 > 520) ns3::RipHeader (command 1 | prefix 0.0.0.0/0 Metric 16 Tag 0 Next Hop 0.0.0.0) ns3::EthernetTrailer (fcs=0)
+ 0.504873 /NodeList/4/DeviceList/0/$ns3::CsmaNetDevice/TxQueue/Enqueue ns3::EthernetHeader ( length/type=0x806, source=00:00:00:00:00:08, destination=ff:ff:ff:ff:ff:ff) ns3::ArpHeader (hardware type: Ethernet request source mac: 00-06-00:00:00:00:00:08 source ipv4: 10.0.3.2 dest ipv4: 10.0.3.1) Payload (size=18) ns3::EthernetTrailer (fcs=0)
- 0.504873 /NodeList/4/DeviceList/0/$ns3::CsmaNetDevice/TxQueue/Dequeue ns3::EthernetHeader ( length/type=0x806, source=00:00:00:00:00:08, destination=ff:ff:ff:ff:ff:ff) ns3::ArpHeader (hardware type: Ethernet request source mac: 00-06-00:00:00:00:00:08 source ipv4: 10.0.3.2 dest ipv4: 10.0.3.1) Payload (size=18) ns3::EthernetTrailer (fcs=0)
r 0.506975 /NodeList/6/DeviceList/1/$ns3::CsmaNetDevice/MacRx ns3::EthernetHeader ( length/type=0x806, source=00:00:00:00:00:08, destination=ff:ff:ff:ff:ff:ff) ns3::ArpHeader (hardware type: Ethernet request source mac: 00-06-00:00:00:00:00:08 source ipv4: 10.0.3.2 dest ipv4: 10.0.3.1) Payload (size=18) ns3::EthernetTrailer (fcs=0)
+ 0.506975 /NodeList/6/DeviceList/1/$ns3::CsmaNetDevice/TxQueue/Enqueue ns3::EthernetHeader ( length/type=0x806, source=00:00:00:00:00:07, destination=00:00:00:00:00:08) ns3::ArpHeader (hardware type: Ethernet reply source mac: 00-06-00:00:00:00:00:07 source ipv4: 10.0.3.1 dest mac: 00-06-00:00:00:00:00:08 dest ipv4: 10.0.3.2) Payload (size=18) ns3::EthernetTrailer (fcs=0)
- 0.506975 /NodeList/6/DeviceList/1/$ns3::CsmaNetDevice/TxQueue/Dequeue ns3::EthernetHeader ( length/type=0x806, source=00:00:00:00:00:07, destination=00:00:00:00:00:08) ns3::ArpHeader (hardware type: Ethernet reply source mac: 00-06-00:00:00:00:00:07 source ipv4: 10.0.3.1 dest mac: 00-06-00:00:00:00:00:08 dest ipv4: 10.0.3.2) Payload (size=18) ns3::EthernetTrailer (fcs=0)
r 0.509079 /NodeList/4/DeviceList/0/$ns3::CsmaNetDevice/MacRx ns3::EthernetHeader ( length/type=0x806, source=00:00:00:00:00:07, destination=00:00:00:00:00:08) ns3::ArpHeader (hardware type: Ethernet reply source mac: 00-06-00:00:00:00:00:07 source ipv4: 10.0.3.1 dest mac: 00-06-00:00:00:00:00:08 dest ipv4: 10.0.3.2) Payload (size=18) ns3::EthernetTrailer (fcs=0)
+ 0.509079 /NodeList/4/DeviceList/0/$ns3::CsmaNetDevice/TxQueue/Enqueue ns3::EthernetHeader ( length/type=0x800, source=00:00:00:00:00:08, destination=00:00:00:00:00:07) ns3::Ipv4Header (tos 0x0 DSCP Default ECN Not-ECT ttl 255 id 0 protocol 17 offset (bytes) 0 flags [none] length: 92 10.0.3.2 > 10.0.3.1) ns3::UdpHeader (length: 72 520 > 520) ns3::RipHeader (command 2 | prefix 10.0.3.0/24 Metric 16 Tag 0 Next Hop 0.0.0.0 | prefix 10.0.4.0/24 Metric 1 Tag 0 Next Hop 0.0.0.0 | prefix 10.0.5.0/24 Metric 1 Tag 0 Next Hop 0.0.0.0) ns3::EthernetTrailer (fcs=0)
- 0.509079 /NodeList/4/DeviceList/0/$ns3::CsmaNetDevice/TxQueue/Dequeue ns3::EthernetHeader ( length/type=0x800, source=00:00:00:00:00:08, destination=00:00:00:00:00:07) ns3::Ipv4Header (tos 0x0 DSCP Default ECN Not-ECT ttl 255 id 0 protocol 17 offset (bytes) 0 flags [none] length: 92 10.0.3.2 > 10.0.3.1) ns3::UdpHeader (length: 72 520 > 520) ns3::RipHeader (command 2 | prefix 10.0.3.0/24 Metric 16 Tag 0 Next Hop 0.0.0.0 | prefix 10.0.4.0/24 Metric 1 Tag 0 Next Hop 0.0.0.0 | prefix 10.0.5.0/24 Metric 1 Tag 0 Next Hop 0.0.0.0) ns3::EthernetTrailer (fcs=0)
r 0.511256 /NodeList/6/DeviceList/1/$ns3::CsmaNetDevice/MacRx ns3::EthernetHeader ( length/type=0x800, source=00:00:00:00:00:08, destination=00:00:00:00:00:07) ns3::Ipv4Header (tos 0x0 DSCP Default ECN Not-ECT ttl 255 id 0 protocol 17 offset (bytes) 0 flags [none] length: 92 10.0.3.2 > 10.0.3.1) ns3::UdpHeader (length: 72 520 > 520) ns3::RipHeader (command 2 | prefix 10.0.3.0/24 Metric 16 Tag 0 Next Hop 0.0.0.0 | prefix 10.0.4.0/24 Metric 1 Tag 0 Next Hop 0.0.0.0 | prefix 10.0.5.0/24 Metric 1 Tag 0 Next Hop 0.0.0.0) ns3::EthernetTrailer (fcs=0)
+ 0.513873 /NodeList/2/DeviceList/1/$ns3::CsmaNetDevice/TxQueue/Enqueue ns3::EthernetHeader ( length/type=0x806, source=00:00:00:00:00:05, destination=ff:ff:ff:ff:ff:ff) ns3::ArpHeader (hardware type: Ethernet request source mac: 00-06-00:00:00:00:00:05 source ipv4: 10.0.2.1 dest ipv4: 10.0.2.2) Payload (size=18) ns3::EthernetTrailer (fcs=0)
- 0.513873 /NodeList/2/DeviceList/1/$ns3::CsmaNetDevice/TxQueue/Dequeue ns3::EthernetHeader ( length/type=0x806, source=00:00:00:00:00:05, destination=ff:ff:ff:ff:ff:ff) ns3::ArpHeader (hardware type: Ethernet request source mac: 00-06-00:00:00:00:00:05 source ipv4: 10.0.2.1 dest ipv4: 10.0.2.2) Payload (size=18) ns3::EthernetTrailer (fcs=0)
r 0.515975 /NodeList/6/DeviceList/0/$ns3::CsmaNetDevice/MacRx ns3::EthernetHeader ( length/type=0x806, source=00:00:00:00:00:05, destination=ff:ff:ff:ff:ff:ff) ns3::ArpHeader (hardware type: Ethernet request source mac: 00-06-00:00:00:00:00:05 source ipv4: 10.0.2.1 dest ipv4: 10.0.2.2) Payload (size=18) ns3::EthernetTrailer (fcs=0)
+ 0.515975 /NodeList/6/DeviceList/0/$ns3::CsmaNetDevice/TxQueue/Enqueue ns3::EthernetHeader ( length/type=0x806, source=00:00:00:00:00:06, destination=00:00:00:00:00:05) ns3::ArpHeader (hardware type: Ethernet reply source mac: 00-06-00:00:00:00:00:06 source ipv4: 10.0.2.2 dest mac: 00-06-00:00:00:00:00:05 dest ipv4: 10.0.2.1) Payload (size=18) ns3::EthernetTrailer (fcs=0)
- 0.515975 /NodeList/6/DeviceList/0/$ns3::CsmaNetDevice/TxQueue/Dequeue ns3::EthernetHeader ( length/type=0x806, source=00:00:00:00:00:06, destination=00:00:00:00:00:05) ns3::ArpHeader (hardware type: Ethernet reply source mac: 00-06-00:00:00:00:00:06 source ipv4: 10.0.2.2 dest mac: 00-06-00:00:00:00:00:05 dest ipv4: 10.0.2.1) Payload (size=18) ns3::EthernetTrailer (fcs=0)
r 0.518079 /NodeList/2/DeviceList/1/$ns3::CsmaNetDevice/MacRx ns3::EthernetHeader ( length/type=0x806, source=00:00:00:00:00:06, destination=00:00:00:00:00:05) ns3::ArpHeader (hardware type: Ethernet reply source mac: 00-06-00:00:00:00:00:06 source ipv4: 10.0.2.2 dest mac: 00-06-00:00:00:00:00:05 dest ipv4: 10.0.2.1) Payload (size=18) ns3::EthernetTrailer (fcs=0)
+ 0.518079 /NodeList/2/DeviceList/1/$ns3::CsmaNetDevice/TxQueue/Enqueue ns3::EthernetHeader ( length/type=0x800, source=00:00:00:00:00:05, destination=00:00:00:00:00:06) ns3::Ipv4Header (tos 0x0 DSCP Default ECN Not-ECT ttl 255 id 0 protocol 17 offset (bytes) 0 flags [none] length: 72 10.0.2.1 > 10.0.2.2) ns3::UdpHeader (length: 52 520 > 520) ns3::RipHeader (command 2 | prefix 10.0.1.0/24 Metric 1 Tag 0 Next Hop 0.0.0.0 | prefix 10.0.2.0/24 Metric 16 Tag 0 Next Hop 0.0.0.0) ns3::EthernetTrailer (fcs=0)
- 0.518079 /NodeList/2/DeviceList/1/$ns3::CsmaNetDevice/TxQueue/Dequeue ns3::EthernetHeader ( length/type=0x800, source=00:00:00:00:00:05, destination=00:00:00:00:00:06) ns3::Ipv4Header (tos 0x0 DSCP Default ECN Not-ECT ttl 255 id 0 protocol 17 offset (bytes) 0 flags [none] length: 72 10.0.2.1 > 10.0.2.2) ns3::UdpHeader (length: 52 520 > 520) ns3::RipHeader (command 2 | prefix 10.0.1.0/24 Metric 1 Tag 0 Next Hop 0.0.0.0 | prefix 10.0.2.0/24 Metric 16 Tag 0 Next Hop 0.0.0.0) ns3::EthernetTrailer (fcs=0)
r 0.520224 /NodeList/6/DeviceList/0/$ns3::CsmaNetDevice/MacRx ns3::EthernetHeader ( length/type=0x800, source=00:00:00:00:00:05, destination=00:00:00:00:00:06) ns3::Ipv4Header (tos 0x0 DSCP Default ECN Not-ECT ttl 255 id 0 protocol 17 offset (bytes) 0 flags [none] length: 72 10.0.2.1 > 10.0.2.2) ns3::UdpHeader (length: 52 520 > 520) ns3::RipHeader (command 2 | prefix 10.0.1.0/24 Metric 1 Tag 0 Next Hop 0.0.0.0 | prefix 10.0.2.0/24 Metric 16 Tag 0 Next Hop 0.0.0.0) ns3::EthernetTrailer (fcs=0)
+ 0.685613 /NodeList/5/DeviceList/0/$ns3::CsmaNetDevice/TxQueue/Enqueue ns3::EthernetHeader ( length/type=0x800, source=00:00:00:00:00:0c, destination=01:00:5e:00:00:09) ns3::Ipv4Header (tos 0x0 DSCP Default ECN Not-ECT ttl 1 id 0 protocol 17 offset (bytes) 0 flags [none] length: 52 10.0.5.2 > 224.0.0.9) ns3::UdpHeader (length: 32 520 > 520) ns3::RipHeader (command 1 | prefix 0.0.0.0/0 Metric 16 Tag 0 Next Hop 0.0.0.0) ns3::EthernetTrailer (fcs=0)
- 0.685613 /NodeList/5/DeviceList/0/$ns3::CsmaNetDevice/TxQueue/Dequeue ns3::EthernetHeader ( length/type=0x800, source=00:00:00:00:00:0c, destination=01:00:5e:00:00:09) ns3::Ipv4Header (tos 0x0 DSCP Default ECN Not-ECT ttl 1 id 0 protocol 17 offset (bytes) 0 flags [none] length: 52 10.0.5.2 > 224.0.0.9) ns3::UdpHeader (length: 32 520 > 520) ns3::RipHeader (command 1 | prefix 0.0.0.0/0 Metric 16 Tag 0 Next Hop 0.0.0.0) ns3::EthernetTrailer (fcs=0)
+ 0.685613 /NodeList/5/DeviceList/1/$ns3::CsmaNetDevice/TxQueue/Enqueue ns3::EthernetHeader ( length/type=0x800, source=00:00:00:00:00:0e, destination=01:00:5e:00:00:09) ns3::Ipv4Header (tos 0x0 DSCP Default ECN Not-ECT ttl 1 id 0 protocol 17 offset (bytes) 0 flags [none] length: 52 10.0.6.2 > 224.0.0.9) ns3::UdpHeader (length: 32 520 > 520) ns3::RipHeader (command 1 | prefix 0.0.0.0/0 Metric 16 Tag 0 Next Hop 0.0.0.0) ns3::EthernetTrailer (fcs=0)
- 0.685613 /NodeList/5/DeviceList/1/$ns3::CsmaNetDevice/TxQueue/Dequeue ns3::EthernetHeader ( length/type=0x800, source=00:00:00:00:00:0e, destination=01:00:5e:00:00:09) ns3::Ipv4Header (tos 0x0 DSCP Default ECN Not-ECT ttl 1 id 0 protocol 17 offset (bytes) 0 flags [none] length: 52 10.0.6.2 > 224.0.0.9) ns3::UdpHeader (length: 32 520 > 520) ns3::RipHeader (command 1 | prefix 0.0.0.0/0 Metric 16 Tag 0 Next Hop 0.0.0.0) ns3::EthernetTrailer (fcs=0)
r 0.687725 /NodeList/4/DeviceList/2/$ns3::CsmaNetDevice/MacRx ns3::EthernetHeader ( length/type=0x800, source=00:00:00:00:00:0c, destination=01:00:5e:00:00:09) ns3::Ipv4Header (tos 0x0 DSCP Default ECN Not-ECT ttl 1 id 0 protocol 17 offset (bytes) 0 flags [none] length: 52 10.0.5.2 > 224.0.0.9) ns3::UdpHeader (length: 32 520 > 520) ns3::RipHeader (command 1 | prefix 0.0.0.0/0 Metric 16 Tag 0 Next Hop 0.0.0.0) ns3::EthernetTrailer (fcs=0)
r 0.687725 /NodeList/3/DeviceList/3/$ns3::CsmaNetDevice/MacRx ns3::EthernetHeader ( length/type=0x800, source=00:00:00:00:00:0e, destination=01:00:5e:00:00:09) ns3::Ipv4Header (tos 0x0 DSCP Default ECN Not-ECT ttl 1 id 0 protocol 17 offset (bytes) 0 flags [none] length: 52 10.0.6.2 > 224.0.0.9) ns3::UdpHeader (length: 32 520 > 520) ns3::RipHeader (command 1 | prefix 0.0.0.0/0 Metric 16 Tag 0 Next Hop 0.0.0.0) ns3::EthernetTrailer (fcs=0)
+ 0.687725 /NodeList/4/DeviceList/2/$ns3::CsmaNetDevice/TxQueue/Enqueue ns3::EthernetHeader ( length/type=0x806, source=00:00:00:00:00:0b, destination=ff:ff:ff:ff:ff:ff) ns3::ArpHeader (hardware type: Ethernet request source mac: 00-06-00:00:00:00:00:0b source ipv4: 10.0.5.1 dest ipv4: 10.0.5.2) Payload (size=18) ns3::EthernetTrailer (fcs=0)
- 0.687725 /NodeList/4/DeviceList/2/$ns3::CsmaNetDevice/TxQueue/Dequeue ns3::EthernetHeader ( length/type=0x806, source=00:00:00:00:00:0b, destination=ff:ff:ff:ff:ff:ff) ns3::ArpHeader (hardware type: Ethernet request source mac: 00-06-00:00:00:00:00:0b source ipv4: 10.0.5.1 dest ipv4: 10.0.5.2) Payload (size=18) ns3::EthernetTrailer (fcs=0)
r 0.689827 /NodeList/5/DeviceList/0/$ns3::CsmaNetDevice/MacRx ns3::EthernetHeader ( length/type=0x806, source=00:00:00:00:00:0b, destination=ff:ff:ff:ff:ff:ff) ns3::ArpHeader (hardware type: Ethernet request source mac: 00-06-00:00:00:00:00:0b source ipv4: 10.0.5.1 dest ipv4: 10.0.5.2) Payload (size=18) ns3::EthernetTrailer (fcs=0)
+ 0.689827 /NodeList/5/DeviceList/0/$ns3::CsmaNetDevice/TxQueue/Enqueue ns3::EthernetHeader ( length/type=0x806, source=00:00:00:00:00:0c, destination=00:00:00:00:00:0b) ns3::ArpHeader (hardware type: Ethernet reply source mac: 00-06-00:00:00:00:00:0c source ipv4: 10.0.5.2 dest mac: 00-06-00:00:00:00:00:0b dest ipv4: 10.0.5.1) Payload (size=18) ns3::EthernetTrailer (fcs=0)
- 0.689827 /NodeList/5/DeviceList/0/$ns3::CsmaNetDevice/TxQueue/Dequeue ns3::EthernetHeader ( length/type=0x806, source=00:00:00:00:00:0c, destination=00:00:00:00:00:0b) ns3::ArpHeader (hardware type: Ethernet reply source mac: 00-06-00:00:00:00:00:0c source ipv4: 10.0.5.2 dest mac: 00-06-00:00:00:00:00:0b dest ipv4: 10.0.5.1) Payload (size=18) ns3::EthernetTrailer (fcs=0)
r 0.69193 /NodeList/4/DeviceList/2/$ns3::CsmaNetDevice/MacRx ns3::EthernetHeader ( length/type=0x806, source=00:00:00:00:00:0c, destination=00:00:00:00:00:0b) ns3::ArpHeader (hardware type: Ethernet reply source mac: 00-06-00:00:00:00:00:0c source ipv4: 10.0.5.2 dest mac: 00-06-00:00:00:00:00:0b dest ipv4: 10.0.5.1) Payload (size=18) ns3::EthernetTrailer (fcs=0)
+ 0.69193 /NodeList/4/DeviceList/2/$ns3::CsmaNetDevice/TxQueue/Enqueue ns3::EthernetHeader ( length/type=0x800, source=00:00:00:00:00:0b, destination=00:00:00:00:00:0c) ns3::Ipv4Header (tos 0x0 DSCP Default ECN Not-ECT ttl 255 id 0 protocol 17 offset (bytes) 0 flags [none] length: 92 10.0.5.1 > 10.0.5.2) ns3::UdpHeader (length: 72 520 > 520) ns3::RipHeader (command 2 | prefix 10.0.3.0/24 Metric 1 Tag 0 Next Hop 0.0.0.0 | prefix 10.0.4.0/24 Metric 1 Tag 0 Next Hop 0.0.0.0 | prefix 10.0.5.0/24 Metric 16 Tag 0 Next Hop 0.0.0.0) ns3::EthernetTrailer (fcs=0)
- 0.69193 /NodeList/4/DeviceList/2/$ns3::CsmaNetDevice/TxQueue/Dequeue ns3::EthernetHeader ( length/type=0x800, source=00:00:00:00:00:0b, destination=00:00:00:00:00:0c) ns3::Ipv4Header (tos 0x0 DSCP Default ECN Not-ECT ttl 255 id 0 protocol 17 offset (bytes) 0 flags [none] length: 92 10.0.5.1 > 10.0.5.2) ns3::UdpHeader (length: 72 520 > 520) ns3::RipHeader (command 2 | prefix 10.0.3.0/24 Metric 1 Tag 0 Next Hop 0.0.0.0 | prefix 10.0.4.0/24 Metric 1 Tag 0 Next Hop 0.0.0.0 | prefix 10.0.5.0/24 Metric 16 Tag 0 Next Hop 0.0.0.0) ns3::EthernetTrailer (fcs=0)
r 0.694107 /NodeList/5/DeviceList/0/$ns3::CsmaNetDevice/MacRx ns3::EthernetHeader ( length/type=0x800, source=00:00:00:00:00:0b, destination=00:00:00:00:00:0c) ns3::Ipv4Header (tos 0x0 DSCP Default ECN Not-ECT ttl 255 id 0 protocol 17 offset (bytes) 0 flags [none] length: 92 10.0.5.1 > 10.0.5.2) ns3::UdpHeader (length: 72 520 > 520) ns3::RipHeader (command 2 | prefix 10.0.3.0/24 Metric 1 Tag 0 Next Hop 0.0.0.0 | prefix 10.0.4.0/24 Metric 1 Tag 0 Next Hop 0.0.0.0 | prefix 10.0.5.0/24 Metric 16 Tag 0 Next Hop 0.0.0.0) ns3::EthernetTrailer (fcs=0)
+ 0.695725 /NodeList/3/DeviceList/3/$ns3::CsmaNetDevice/TxQueue/Enqueue ns3::EthernetHeader ( length/type=0x806, source=00:00:00:00:00:0d, destination=ff:ff:ff:ff:ff:ff) ns3::ArpHeader (hardware type: Ethernet request source mac: 00-06-00:00:00:00:00:0d source ipv4: 10.0.6.1 dest ipv4: 10.0.6.2) Payload (size=18) ns3::EthernetTrailer (fcs=0)
- 0.695725 /NodeList/3/DeviceList/3/$ns3::CsmaNetDevice/TxQueue/Dequeue ns3::EthernetHeader ( length/type=0x806, source=00:00:00:00:00:0d, destination=ff:ff:ff:ff:ff:ff) ns3::ArpHeader (hardware type: Ethernet request source mac: 00-06-00:00:00:00:00:0d source ipv4: 10.0.6.1 dest ipv4: 10.0.6.2) Payload (size=18) ns3::EthernetTrailer (fcs=0)
r 0.697827 /NodeList/5/DeviceList/1/$ns3::CsmaNetDevice/MacRx ns3::EthernetHeader ( length/type=0x806, source=00:00:00:00:00:0d, destination=ff:ff:ff:ff:ff:ff) ns3::ArpHeader (hardware type: Ethernet request source mac: 00-06-00:00:00:00:00:0d source ipv4: 10.0.6.1 dest ipv4: 10.0.6.2) Payload (size=18) ns3::EthernetTrailer (fcs=0)
+ 0.697827 /NodeList/5/DeviceList/1/$ns3::CsmaNetDevice/TxQueue/Enqueue ns3::EthernetHeader ( length/type=0x806, source=00:00:00:00:00:0e, destination=00:00:00:00:00:0d) ns3::ArpHeader (hardware type: Ethernet reply source mac: 00-06-00:00:00:00:00:0e source ipv4: 10.0.6.2 dest mac: 00-06-00:00:00:00:00:0d dest ipv4: 10.0.6.1) Payload (size=18) ns3::EthernetTrailer (fcs=0)
- 0.697827 /NodeList/5/DeviceList/1/$ns3::CsmaNetDevice/TxQueue/Dequeue ns3::EthernetHeader ( length/type=0x806, source=00:00:00:00:00:0e, destination=00:00:00:00:00:0d) ns3::ArpHeader (hardware type: Ethernet reply source mac: 00-06-00:00:00:00:00:0e source ipv4: 10.0.6.2 dest mac: 00-06-00:00:00:00:00:0d dest ipv4: 10.0.6.1) Payload (size=18) ns3::EthernetTrailer (fcs=0)
r 0.69993 /NodeList/3/DeviceList/3/$ns3::CsmaNetDevice/MacRx ns3::EthernetHeader ( length/type=0x806, source=00:00:00:00:00:0e, destination=00:00:00:00:00:0d) ns3::ArpHeader (hardware type: Ethernet reply source mac: 00-06-00:00:00:00:00:0e source ipv4: 10.0.6.2 dest mac: 00-06-00:00:00:00:00:0d dest ipv4: 10.0.6.1) Payload (size=18) ns3::EthernetTrailer (fcs=0)
+ 0.69993 /NodeList/3/DeviceList/3/$ns3::CsmaNetDevice/TxQueue/Enqueue ns3::EthernetHeader ( length/type=0x800, source=00:00:00:00:00:0d, destination=00:00:00:00:00:0e) ns3::Ipv4Header (tos 0x0 DSCP Default ECN Not-ECT ttl 255 id 0 protocol 17 offset (bytes) 0 flags [none] length: 112 10.0.6.1 > 10.0.6.2) ns3::UdpHeader (length: 92 520 > 520) ns3::RipHeader (command 2 | prefix 10.0.0.0/24 Metric 1 Tag 0 Next Hop 0.0.0.0 | prefix 10.0.1.0/24 Metric 1 Tag 0 Next Hop 0.0.0.0 | prefix 10.0.4.0/24 Metric 1 Tag 0 Next Hop 0.0.0.0 | prefix 10.0.6.0/24 Metric 16 Tag 0 Next Hop 0.0.0.0) ns3::EthernetTrailer (fcs=0)
- 0.69993 /NodeList/3/DeviceList/3/$ns3::CsmaNetDevice/TxQueue/Dequeue ns3::EthernetHeader ( length/type=0x800, source=00:00:00:00:00:0d, destination=00:00:00:00:00:0e) ns3::Ipv4Header (tos 0x0 DSCP Default ECN Not-ECT ttl 255 id 0 protocol 17 offset (bytes) 0 flags [none] length: 112 10.0.6.1 > 10.0.6.2) ns3::UdpHeader (length: 92 520 > 520) ns3::RipHeader (command 2 | prefix 10.0.0.0/24 Metric 1 Tag 0 Next Hop 0.0.0.0 | prefix 10.0.1.0/24 Metric 1 Tag 0 Next Hop 0.0.0.0 | prefix 10.0.4.0/24 Metric 1 Tag 0 Next Hop 0.0.0.0 | prefix 10.0.6.0/24 Metric 16 Tag 0 Next Hop 0.0.0.0) ns3::EthernetTrailer (fcs=0)
r 0.702139 /NodeList/5/DeviceList/1/$ns3::CsmaNetDevice/MacRx ns3::EthernetHeader ( length/type=0x800, source=00:00:00:00:00:0d, destination=00:00:00:00:00:0e) ns3::Ipv4Header (tos 0x0 DSCP Default ECN Not-ECT ttl 255 id 0 protocol 17 offset (bytes) 0 flags [none] length: 112 10.0.6.1 > 10.0.6.2) ns3::UdpHeader (length: 92 520 > 520) ns3::RipHeader (command 2 | prefix 10.0.0.0/24 Metric 1 Tag 0 Next Hop 0.0.0.0 | prefix 10.0.1.0/24 Metric 1 Tag 0 Next Hop 0.0.0.0 | prefix 10.0.4.0/24 Metric 1 Tag 0 Next Hop 0.0.0.0 | prefix 10.0.6.0/24 Metric 16 Tag 0 Next Hop 0.0.0.0) ns3::EthernetTrailer (fcs=0)
+ 0.720582 /NodeList/3/DeviceList/0/$ns3::CsmaNetDevice/TxQueue/Enqueue ns3::EthernetHeader ( length/type=0x800, source=00:00:00:00:00:02, destination=01:00:5e:00:00:09) ns3::Ipv4Header (tos 0x0 DSCP Default ECN Not-ECT ttl 1 id 0 protocol 17 offset (bytes) 0 flags [none] length: 52 10.0.0.2 > 224.0.0.9) ns3::UdpHeader (length: 32 520 > 520) ns3::RipHeader (command 1 | prefix 0.0.0.0/0 Metric 16 Tag 0 Next Hop 0.0.0.0) ns3::EthernetTrailer (fcs=0)
- 0.720582 /NodeList/3/DeviceList/0/$ns3::CsmaNetDevice/TxQueue/Dequeue ns3::EthernetHeader ( length/type=0x800, source=00:00:00:00:00:02, destination=01:00:5e:00:00:09) ns3::Ipv4Header (tos 0x0 DSCP Default ECN Not-ECT ttl 1 id 0 protocol 17 offset (bytes) 0 flags [none] length: 52 10.0.0.2 > 224.0.0.9) ns3::UdpHeader (length: 32 520 > 520) ns3::RipHeader (command 1 | prefix 0.0.0.0/0 Metric 16 Tag 0 Next Hop 0.0.0.0) ns3::EthernetTrailer (fcs=0)
+ 0.720582 /NodeList/3/DeviceList/1/$ns3::CsmaNetDevice/TxQueue/Enqueue ns3::EthernetHeader ( length/type=0x800, source=00:00:00:00:00:04, destination=01:00:5e:00:00:09) ns3::Ipv4Header (tos 0x0 DSCP Default ECN Not-ECT ttl 1 id 0 protocol 17 offset (bytes) 0 flags [none] length: 52 10.0.1.2 > 224.0.0.9) ns3::UdpHeader (length: 32 520 > 520) ns3::RipHeader (command 1 | prefix 0.0.0.0/0 Metric 16 Tag 0 Next Hop 0.0.0.0) ns3::EthernetTrailer (fcs=0)
- 0.720582 /NodeList/3/DeviceList/1/$ns3::CsmaNetDevice/TxQueue/Dequeue ns3::EthernetHeader ( length/type=0x800, source=00:00:00:00:00:04, destination=01:00:5e:00:00:09) ns3::Ipv4Header (tos 0x0 DSCP Default ECN Not-ECT ttl 1 id 0 protocol 17 offset (bytes) 0 flags [none] length: 52 10.0.1.2 > 224.0.0.9) ns3::UdpHeader (length: 32 520 > 520) ns3::RipHeader (command 1 | prefix 0.0.0.0/0 Metric 16 Tag 0 Next Hop 0.0.0.0) ns3::EthernetTrailer (fcs=0)
+ 0.720582 /NodeList/3/DeviceList/2/$ns3::CsmaNetDevice/TxQueue/Enqueue ns3::EthernetHeader ( length/type=0x800, source=00:00:00:00:00:09, destination=01:00:5e:00:00:09) ns3::Ipv4Header (tos 0x0 DSCP Default ECN Not-ECT ttl 1 id 0 protocol 17 offset (bytes) 0 flags [none] length: 52 10.0.4.1 > 224.0.0.9) ns3::UdpHeader (length: 32 520 > 520) ns3::RipHeader (command 1 | prefix 0.0.0.0/0 Metric 16 Tag 0 Next Hop 0.0.0.0) ns3::EthernetTrailer (fcs=0)
- 0.720582 /NodeList/3/DeviceList/2/$ns3::CsmaNetDevice/TxQueue/Dequeue ns3::EthernetHeader ( length/type=0x800, source=00:00:00:00:00:09, destination=01:00:5e:00:00:09) ns3::Ipv4Header (tos 0x0 DSCP Default ECN Not-ECT ttl 1 id 0 protocol 17 offset (bytes) 0 flags [none] length: 52 10.0.4.1 > 224.0.0.9) ns3::UdpHeader (length: 32 520 > 520) ns3::RipHeader (command 1 | prefix 0.0.0.0/0 Metric 16 Tag 0 Next Hop 0.0.0.0) ns3::EthernetTrailer (fcs=0)
+ 0.720582 /NodeList/3/DeviceList/3/$ns3::CsmaNetDevice/TxQueue/Enqueue ns3::EthernetHeader ( length/type=0x800, source=00:00:00:00:00:0d, destination=01:00:5e:00:00:09) ns3::Ipv4Header (tos 0x0 DSCP Default ECN Not-ECT ttl 1 id 0 protocol 17 offset (bytes) 0 flags [none] length: 52 10.0.6.1 > 224.0.0.9) ns3::UdpHeader (length: 32 520 > 520) ns3::RipHeader (command 1 | prefix 0.0.0.0/0 Metric 16 Tag 0 Next Hop 0.0.0.0) ns3::EthernetTrailer (fcs=0)
- 0.720582 /NodeList/3/DeviceList/3/$ns3::CsmaNetDevice/TxQueue/Dequeue ns3::EthernetHeader ( length/type=0x800, source=00:00:00:00:00:0d, destination=01:00:5e:00:00:09) ns3::Ipv4Header (tos 0x0 DSCP Default ECN Not-ECT ttl 1 id 0 protocol 17 offset (bytes) 0 flags [none] length: 52 10.0.6.1 > 224.0.0.9) ns3::UdpHeader (length: 32 520 > 520) ns3::RipHeader (command 1 | prefix 0.0.0.0/0 Metric 16 Tag 0 Next Hop 0.0.0.0) ns3::EthernetTrailer (fcs=0)
r 0.722694 /NodeList/0/DeviceList/0/$ns3::CsmaNetDevice/MacRx ns3::EthernetHeader ( length/type=0x800, source=00:00:00:00:00:02, destination=01:00:5e:00:00:09) ns3::Ipv4Header (tos 0x0 DSCP Default ECN Not-ECT ttl 1 id 0 protocol 17 offset (bytes) 0 flags [none] length: 52 10.0.0.2 > 224.0.0.9) ns3::UdpHeader (length: 32 520 > 520) ns3::RipHeader (command 1 | prefix 0.0.0.0/0 Metric 16 Tag 0 Next Hop 0.0.0.0) ns3::EthernetTrailer (fcs=0)
r 0.722694 /NodeList/2/DeviceList/0/$ns3::CsmaNetDevice/MacRx ns3::EthernetHeader ( length/type=0x800, source=00:00:00:00:00:04, destination=01:00:5e:00:00:09) ns3::Ipv4Header (tos 0x0 DSCP Default ECN Not-ECT ttl 1 id 0 protocol 17 offset (bytes) 0 flags [none] length: 52 10.0.1.2 > 224.0.0.9) ns3::UdpHeader (length: 32 520 > 520) ns3::RipHeader (command 1 | prefix 0.0.0.0/0 Metric 16 Tag 0 Next Hop 0.0.0.0) ns3::EthernetTrailer (fcs=0)
r 0.722694 /NodeList/4/DeviceList/1/$ns3::CsmaNetDevice/MacRx ns3::EthernetHeader ( length/type=0x800, source=00:00:00:00:00:09, destination=01:00:5e:00:00:09) ns3::Ipv4Header (tos 0x0 DSCP Default ECN Not-ECT ttl 1 id 0 protocol 17 offset (bytes) 0 flags [none] length: 52 10.0.4.1 > 224.0.0.9) ns3::UdpHeader (length: 32 520 > 520) ns3::RipHeader (command 1 | prefix 0.0.0.0/0 Metric 16 Tag 0 Next Hop 0.0.0.0) ns3::EthernetTrailer (fcs=0)
r 0.722694 /NodeList/5/DeviceList/1/$ns3::CsmaNetDevice/MacRx ns3::EthernetHeader ( length/type=0x800, source=00:00:00:00:00:0d, destination=01:00:5e:00:00:09) ns3::Ipv4Header (tos 0x0 DSCP Default ECN Not-ECT ttl 1 id 0 protocol 17 offset (bytes) 0 flags [none] length: 52 10.0.6.1 > 224.0.0.9) ns3::UdpHeader (length: 32 520 > 520) ns3::RipHeader (command 1 | prefix 0.0.0.0/0 Metric 16 Tag 0 Next Hop 0.0.0.0) ns3::EthernetTrailer (fcs=0)
+ 0.722694 /NodeList/4/DeviceList/1/$ns3::CsmaNetDevice/TxQueue/Enqueue ns3::EthernetHeader ( length/type=0x806, source=00:00:00:00:00:0a, destination=ff:ff:ff:ff:ff:ff) ns3::ArpHeader (hardware type: Ethernet request source mac: 00-06-00:00:00:00:00:0a source ipv4: 10.0.4.2 dest ipv4: 10.0.4.1) Payload (size=18) ns3::EthernetTrailer (fcs=0)
- 0.722694 /NodeList/4/DeviceList/1/$ns3::CsmaNetDevice/TxQueue/Dequeue ns3::EthernetHeader ( length/type=0x806, source=00:00:00:00:00:0a, destination=ff:ff:ff:ff:ff:ff) ns3::ArpHeader (hardware type: Ethernet request source mac: 00-06-00:00:00:00:00:0a source ipv4: 10.0.4.2 dest ipv4: 10.0.4.1) Payload (size=18) ns3::EthernetTrailer (fcs=0)
+ 0.723694 /NodeList/5/DeviceList/1/$ns3::CsmaNetDevice/TxQueue/Enqueue ns3::EthernetHeader ( length/type=0x806, source=00:00:00:00:00:0e, destination=ff:ff:ff:ff:ff:ff) ns3::ArpHeader (hardware type: Ethernet request source mac: 00-06-00:00:00:00:00:0e source ipv4: 10.0.6.2 dest ipv4: 10.0.6.1) Payload (size=18) ns3::EthernetTrailer (fcs=0)
- 0.723694 /NodeList/5/DeviceList/1/$ns3::CsmaNetDevice/TxQueue/Dequeue ns3::EthernetHeader ( length/type=0x806, source=00:00:00:00:00:0e, destination=ff:ff:ff:ff:ff:ff) ns3::ArpHeader (hardware type: Ethernet request source mac: 00-06-00:00:00:00:00:0e source ipv4: 10.0.6.2 dest ipv4: 10.0.6.1) Payload (size=18) ns3::EthernetTrailer (fcs=0)
r 0.724796 /NodeList/3/DeviceList/2/$ns3::CsmaNetDevice/MacRx ns3::EthernetHeader ( length/type=0x806, source=00:00:00:00:00:0a, destination=ff:ff:ff:ff:ff:ff) ns3::ArpHeader (hardware type: Ethernet request source mac: 00-06-00:00:00:00:00:0a source ipv4: 10.0.4.2 dest ipv4: 10.0.4.1) Payload (size=18) ns3::EthernetTrailer (fcs=0)
+ 0.724796 /NodeList/3/DeviceList/2/$ns3::CsmaNetDevice/TxQueue/Enqueue ns3::EthernetHeader ( length/type=0x806, source=00:00:00:00:00:09, destination=00:00:00:00:00:0a) ns3::ArpHeader (hardware type: Ethernet reply source mac: 00-06-00:00:00:00:00:09 source ipv4: 10.0.4.1 dest mac: 00-06-00:00:00:00:00:0a dest ipv4: 10.0.4.2) Payload (size=18) ns3::EthernetTrailer (fcs=0)
- 0.724796 /NodeList/3/DeviceList/2/$ns3::CsmaNetDevice/TxQueue/Dequeue ns3::EthernetHeader ( length/type=0x806, source=00:00:00:00:00:09, destination=00:00:00:00:00:0a) ns3::ArpHeader (hardware type: Ethernet reply source mac: 00-06-00:00:00:00:00:09 source ipv4: 10.0.4.1 dest mac: 00-06-00:00:00:00:00:0a dest ipv4: 10.0.4.2) Payload (size=18) ns3::EthernetTrailer (fcs=0)
r 0.725796 /NodeList/3/DeviceList/3/$ns3::CsmaNetDevice/MacRx ns3::EthernetHeader ( length/type=0x806, source=00:00:00:00:00:0e, destination=ff:ff:ff:ff:ff:ff) ns3::ArpHeader (hardware type: Ethernet request source mac: 00-06-00:00:00:00:00:0e source ipv4: 10.0.6.2 dest ipv4: 10.0.6.1) Payload (size=18) ns3::EthernetTrailer (fcs=0)
+ 0.725796 /NodeList/3/DeviceList/3/$ns3::CsmaNetDevice/TxQueue/Enqueue ns3::EthernetHeader ( length/type=0x806, source=00:00:00:00:00:0d, destination=00:00:00:00:00:0e) ns3::ArpHeader (hardware type: Ethernet reply source mac: 00-06-00:00:00:00:00:0d source ipv4: 10.0.6.1 dest mac: 00-06-00:00:00:00:00:0e dest ipv4: 10.0.6.2) Payload (size=18) ns3::EthernetTrailer (fcs=0)
- 0.725796 /NodeList/3/DeviceList/3/$ns3::CsmaNetDevice/TxQueue/Dequeue ns3::EthernetHeader ( length/type=0x806, source=00:00:00:00:00:0d, destination=00:00:00:00:00:0e) ns3::ArpHeader (hardware type: Ethernet reply source mac: 00-06-00:00:00:00:00:0d source ipv4: 10.0.6.1 dest mac: 00-06-00:00:00:00:00:0e dest ipv4: 10.0.6.2) Payload (size=18) ns3::EthernetTrailer (fcs=0)
r 0.7269 /NodeList/4/DeviceList/1/$ns3::CsmaNetDevice/MacRx ns3::EthernetHeader ( length/type=0x806, source=00:00:00:00:00:09, destination=00:00:00:00:00:0a) ns3::ArpHeader (hardware type: Ethernet reply source mac: 00-06-00:00:00:00:00:09 source ipv4: 10.0.4.1 dest mac: 00-06-00:00:00:00:00:0a dest ipv4: 10.0.4.2) Payload (size=18) ns3::EthernetTrailer (fcs=0)